45
isomer_1044.log	Energy: -113373.4674473
B          2.54577        1.80437       -0.57137
B          2.50333        3.38994       -0.08035
B          1.06920        4.15061        0.17612
B         -0.37375        3.39192       -0.34759
B          1.07092        0.88711       -0.88650
B         -1.76418        0.85096       -0.86798
B         -1.75152        4.09760        0.44029
B          4.01401        0.95213       -0.49790
B         -1.78560        2.48871       -0.28131
B          3.90931        2.59279        0.09367
B         -0.33929        4.69661        0.55066
B         -3.12157        3.24591        0.38445
B         -3.22481        1.72356       -0.22810
B         -4.62024        0.85992        0.13906
B         -0.42434       -1.62887       -1.00011
B         -1.79845       -2.43106       -0.39960
B         -3.23716       -1.66249       -0.31148
B         -4.60543       -0.78982        0.12438
B         -4.56605       -2.46101        0.47246
B         -3.15146       -3.20226        0.22199
B         -1.73193       -4.05730        0.28761
B         -0.38028       -3.31516       -0.43934
B         -0.33997       -4.60630        0.48715
B          2.62651       -3.49640        0.04773
B          1.12669       -3.99665        0.19487
B          2.56573       -1.58958       -0.44063
B          3.82428       -2.44209        0.25794
B          4.03754       -0.78244       -0.43211
B          1.05751       -2.49387       -0.72667
B          1.11222        2.62775       -0.60798
B         -3.28568        0.06317       -0.61025
B          1.05434       -0.77674       -0.79829
B         -4.56959        2.49589        0.61125
B          5.18402        1.82430        0.57583
B          5.18086        0.10803        0.36196
B          5.11812       -1.55770        0.71921
B          6.20018       -0.59815        1.36189
B          6.24047        0.90686        1.27311
B         -1.77470       -0.78551       -0.93046
B          1.77965       -2.34974        0.74685
B         -0.41006        1.71615       -0.89743
B         -5.74780        1.59838        0.95342
B         -5.95157        0.01206        0.88087
B         -5.77365       -1.54399        0.86859
B          2.50843        0.08242       -0.87590
