45
isomer_1199.log	Energy: -113372.4661191
B          2.20039        2.02751       -0.50446
B          1.99291        3.67196       -0.02271
B          0.61680        4.39414       -0.24152
B         -0.69051        3.43760       -0.86473
B          1.06732        1.08187       -1.20311
B         -1.71519        0.69389       -0.96883
B         -2.12712        4.07773       -0.13130
B          3.35286        1.18476        0.24238
B         -1.94886        2.37746       -0.66030
B          3.24155        2.89011        0.54518
B         -0.85438        4.87770       -0.15524
B         -3.31104        3.01043        0.13794
B         -3.17929        1.41145       -0.23326
B         -4.34468        0.37276        0.47971
B         -0.12609       -1.85654       -1.16874
B         -1.33311       -2.66205       -0.41666
B         -2.74972       -1.97796       -0.07954
B         -4.19923       -1.27790        0.26482
B         -3.85249       -2.85791        0.90116
B         -2.46965       -3.57073        0.34072
B         -1.03213       -4.26414        0.21267
B          0.24315       -3.36681       -0.66049
B          0.42273       -4.73984        0.11976
B          2.91691       -3.20256       -0.73270
B          1.71947       -4.09766       -0.36020
B          3.05408       -1.74127       -1.42269
B          3.86720       -2.20676        0.02394
B          3.46596       -0.54802       -0.06530
B          1.47522       -2.20157       -1.04461
B          0.85270        2.81672       -1.02109
B         -3.00581       -0.29582       -0.43993
B          2.19293       -0.40407       -1.30612
B         -4.45948        2.06610        0.76425
B          4.29722        2.01910        1.44652
B          4.51085        0.33829        0.98190
B          4.65954       -1.35389        1.07298
B          5.30453       -0.45644        2.14411
B          5.14434        1.06776        2.28369
B         -1.36126       -0.89699       -0.80702
B          1.85067        0.30813        0.18578
B         -0.51042        1.73887       -1.27902
B         -5.44733        1.04680        1.39523
B         -5.38610       -0.49272        1.49179
B         -4.90911       -1.98842        1.52966
B          0.56368       -0.45107       -0.77465
