45
isomer_1214.log	Energy: -111541.1133589
B          2.59568        1.70430       -0.42610
B          2.58272        3.34462       -0.05627
B          1.17361        4.17292        0.17851
B         -0.28012        3.33384       -0.36942
B          1.13895        0.80711       -0.72924
B         -1.73565        0.82943       -0.82063
B         -1.67362        4.12038        0.31166
B          4.05619        0.83405       -0.34410
B         -1.66128        2.43741       -0.26988
B          3.99176        2.52872        0.10198
B         -0.25059        4.78814        0.44983
B         -3.10359        3.27017        0.32845
B         -3.12518        1.64517       -0.22791
B         -4.58402        0.83212        0.27089
B         -0.29537       -1.72383       -0.86822
B         -1.67760       -2.41820       -0.24050
B         -3.13614       -1.61570       -0.20818
B         -4.58946       -0.78688        0.28069
B         -4.42761       -2.34357        0.53567
B         -3.12544       -3.23396        0.36781
B         -1.70122       -4.09389        0.36137
B         -0.30250       -3.32504       -0.32912
B         -0.28271       -4.76948        0.50767
B          2.56022       -3.35127       -0.01574
B          1.14559       -4.16718        0.22899
B          2.58419       -1.71566       -0.40540
B          3.97472       -2.54299        0.13267
B          4.05052       -0.85432       -0.33388
B          1.15162       -2.53613       -0.56594
B          1.16865        2.53236       -0.59661
B         -3.21286        0.11261       -0.61545
B          1.13351       -0.81244       -0.71944
B         -4.41170        2.39065        0.50702
B          5.31231        1.72261        0.61355
B          5.30442        0.09007        0.38949
B          5.30067       -1.73964        0.63450
B          6.46799       -0.78511        1.23327
B          6.47321        0.76757        1.22387
B         -1.74118       -0.81655       -0.81066
B          0.81821       -1.36046       -1.24762
B         -0.28378        1.72621       -0.88910
B         -5.92310        1.68598        0.72246
B         -6.12405       -0.02618        0.79744
B         -5.93209       -1.75674        0.81390
B          0.59613        1.09880        0.09773
