45
isomer_1439.log	Energy: -113512.7888265
B         -2.32642        1.60680        0.36329
B         -2.19727        3.27262       -0.34424
B         -0.82718        4.04765       -0.40399
B          0.53674        3.35837        0.47558
B         -1.03590        0.94398        1.08991
B          1.90913        0.79706        1.12465
B          1.97242        4.05284       -0.30602
B         -3.78838        0.98244        0.03990
B          1.94299        2.48025        0.52235
B         -3.60197        2.55981       -0.39220
B          0.59027        4.60834       -0.55987
B          3.29091        3.15851       -0.21570
B          3.31644        1.60527        0.37762
B          4.54796        0.59723       -0.27714
B          0.25654       -1.69296        0.88339
B          1.59975       -2.53044        0.42618
B          3.04229       -1.81968        0.19144
B          4.55883       -1.07476       -0.05594
B          4.19965       -2.67568       -0.71752
B          2.84496       -3.42977       -0.28480
B          1.41224       -4.13720       -0.34572
B          0.05021       -3.21364        0.27880
B         -0.03726       -4.61299       -0.47608
B         -2.78772       -3.27760       -0.07619
B         -1.41881       -3.98405       -0.19888
B         -2.81531       -1.75754        0.19608
B         -4.25304       -2.38837       -0.29117
B         -4.02402       -0.75611        0.09046
B         -1.35063       -2.20980        0.57757
B         -0.97894        2.57050        0.53245
B          3.32422       -0.11336        0.63441
B         -2.21942       -0.28192        0.58184
B          4.57639        2.25787       -0.67221
B         -5.05437        1.93090       -0.69209
B         -5.22244        0.25178       -0.34695
B         -5.49383       -1.43866       -0.61071
B         -6.51954       -0.36895       -1.10180
B         -6.31227        1.12377       -1.15669
B          1.74661       -0.86213        0.79385
B          0.46473        0.07149        1.45303
B          0.50259        1.83570        1.11194
B          5.62183        1.29598       -1.20629
B          5.65702       -0.26519       -1.24823
B          5.29711       -1.78353       -1.27867
B         -0.99712       -0.73482        1.51435
