45
isomer_1447.log	Energy: -113404.8977330
B          1.89345        1.71313       -0.20172
B          1.63627        3.28948        0.36973
B          0.18894        3.98871        0.30378
B         -1.08760        3.16940       -0.49190
B          0.59859        0.82559       -0.88650
B         -2.24221        0.57498       -1.13047
B         -2.60934        3.76702        0.11867
B          3.44969        0.95487       -0.03334
B         -2.45869        2.17043       -0.66265
B          3.02608        2.63508        0.58357
B         -1.28069        4.47321        0.41075
B         -3.85715        2.77918        0.05089
B         -3.77604        1.20871       -0.54821
B         -4.93453        0.07340       -0.01902
B          0.63143       -0.83165       -1.02887
B         -1.26930       -2.48722       -0.70042
B         -2.85657       -1.99389       -0.30824
B         -4.37205       -1.49863        0.24488
B         -3.67488       -2.86608        0.97129
B         -2.10648       -3.18846        0.56742
B         -0.58273       -3.27022        0.62883
B          0.50305       -2.63057       -0.84694
B          0.95697       -3.14210        0.89111
B          3.50384       -2.71067       -0.05877
B          2.46232       -3.10171        1.03138
B          3.23769       -0.96193       -0.24107
B          4.75391       -1.75688       -0.32737
B          4.51376       -0.23586       -0.84089
B          1.71584       -1.64076        0.18420
B          0.43275        2.48274       -0.57157
B         -3.54356       -0.52622       -0.87178
B          1.87485       -0.01812       -0.18460
B         -4.96027        1.71975        0.58889
B          4.39406        2.00848        1.12260
B          5.13047        0.86824        0.17265
B          5.94886       -0.66997       -0.02129
B          6.57219        0.35019        0.88968
B          5.78859        1.46367        1.52362
B         -1.91704       -0.99494       -1.41997
B          1.98362       -3.23895       -0.59923
B         -0.91190        1.50889       -1.00040
B         -5.68419        0.60019        1.30358
B         -5.57166       -0.92964        1.37615
B         -5.00389       -2.36133        1.45622
B         -0.49641       -1.56955       -1.79465
