45
isomer_1710.log	Energy: -113235.7997249
B         -2.55528       -1.58082       -0.44144
B         -2.64573       -3.11689        0.34806
B         -1.43366       -4.00614        0.60991
B          0.19823       -3.30608       -0.68246
B         -1.63397       -0.32261       -0.79399
B          1.67210       -0.70172       -0.84450
B          1.44935       -4.07016        0.29094
B         -3.85716       -0.67299       -0.10002
B          1.54306       -2.36734       -0.50025
B         -3.96532       -2.21698        0.33890
B          0.01822       -4.53214        0.50367
B          2.80682       -3.27055        0.16375
B          3.02359       -1.72776       -0.38771
B          4.47354       -0.93892        0.10203
B          0.45613        1.97734       -1.18773
B          1.85912        2.56337       -0.48765
B          3.20188        1.70540       -0.27844
B          4.45946        0.70779        0.31099
B          4.46723        2.35640        0.78893
B          3.14694        3.22844        0.34789
B          1.80435        4.15252        0.34415
B          0.45229        3.53712       -0.56496
B          0.42811        4.80411        0.41132
B         -2.34668        3.48090       -0.13356
B         -0.99763        4.28944        0.06444
B         -2.35108        1.71344       -0.50319
B         -3.64312        2.65209        0.07695
B         -3.78851        1.05577       -0.19873
B         -1.01191        2.72225       -0.77861
B         -1.40675       -2.64013       -0.73921
B          3.28090        0.02061       -0.62573
B         -0.93457        1.05699       -1.00501
B          4.16465       -2.52406        0.66253
B         -5.19316       -1.34352        0.86238
B         -5.02215        0.28955        0.48712
B         -5.02494        1.94906        0.65428
B         -6.11356        1.16544        1.33692
B         -6.16421       -0.33179        1.47877
B          1.70494        0.86848       -1.02952
B         -1.04013       -4.25033       -0.93056
B          0.11194       -1.77592       -1.17793
B          5.20940       -1.65608        1.31232
B          5.56686       -0.14460        1.32325
B          5.50952        1.40108        1.30565
B          0.12090       -0.20008       -0.73390
