45
isomer_1775.log	Energy: -113675.8863801
B         -2.56308        1.73051        0.53032
B         -2.51357        3.30374       -0.03703
B         -1.15676        4.14918       -0.10908
B          0.26897        3.40294        0.53884
B         -1.17003        0.85070        1.06818
B          1.71809        0.84346        0.78851
B          1.64185        4.16976       -0.25864
B         -3.98398        0.84539        0.22460
B          1.72420        2.55107        0.43018
B         -3.86959        2.48496       -0.27595
B          0.21973        4.74800       -0.35319
B          3.00839        3.34039       -0.27917
B          3.12890        1.73347        0.22075
B          4.54695        0.89414       -0.14499
B          0.36924       -1.82507        1.11691
B          1.80209       -2.53247        0.48837
B          3.17369       -1.68029        0.26062
B          4.53247       -0.79773       -0.23733
B          4.40714       -2.44438       -0.74901
B          3.09221       -3.28055       -0.26582
B          1.74832       -4.14424       -0.24605
B          0.35090       -3.38453        0.51374
B          0.34165       -4.74554       -0.35268
B         -2.42765       -3.33488       -0.04008
B         -1.04763       -4.15700       -0.12351
B         -2.50945       -1.75986        0.48867
B         -3.80994       -2.53727       -0.29248
B         -3.95666       -0.91059        0.21618
B         -1.11945       -2.59004        0.76473
B         -1.18586        2.57770        0.78890
B          3.29386        0.01607        0.60958
B         -1.12999       -0.84901        1.04174
B          4.32626        2.49941       -0.77081
B         -5.10442        1.65174       -0.84529
B         -5.19569       -0.04432       -0.52257
B         -5.06093       -1.73877       -0.86424
B         -6.08459       -0.81401       -1.61255
B         -6.10488        0.70664       -1.60548
B          1.78649       -0.83036        0.91151
B         -2.60990       -0.01626        0.74576
B          0.31282        1.83072        1.08759
B          5.37339        1.56954       -1.33785
B          5.62000        0.03338       -1.30459
B          5.47366       -1.51860       -1.30105
B          0.34278        0.00288        1.09377
