45
isomer_1886.log	Energy: -112561.5121515
B         -2.62982        1.73017        0.42005
B         -2.57238        3.35951       -0.01228
B         -1.15170        4.15637       -0.24755
B          0.27603        3.38800        0.30962
B         -1.27436        0.84503        0.75226
B          1.71928        0.93042        0.75978
B          1.67265        4.14818       -0.39767
B         -4.03871        0.91549        0.33282
B          1.68256        2.53071        0.19605
B         -3.90547        2.55748       -0.12697
B          0.23227        4.72821       -0.52209
B          3.08900        3.30112       -0.41885
B          3.13577        1.67454        0.14770
B          4.57524        0.79192       -0.31867
B          0.05002       -1.73864        1.01859
B          1.59910       -2.52891        0.20028
B          3.08327       -1.69680        0.17433
B          4.52599       -0.87157       -0.31148
B          4.36414       -2.47275       -0.60741
B          2.94639       -3.35367       -0.41216
B          1.48115       -4.18652       -0.38503
B          0.07967       -3.38167        0.31838
B          0.00534       -4.71859       -0.48064
B         -2.78885       -3.27010        0.03510
B         -1.42540       -4.11910       -0.21344
B         -2.76975       -1.61916        0.43885
B         -4.10647       -2.39277       -0.10301
B         -4.10837       -0.78045        0.33862
B         -1.42044       -2.51133        0.58380
B         -1.22817        2.56001        0.56189
B          3.21932        0.06980        0.57005
B         -1.37850       -0.73217        0.75525
B          4.48934        2.39997       -0.62185
B         -5.22470        1.77194       -0.62899
B         -5.26645        0.16780       -0.37782
B         -5.33864       -1.55189       -0.60153
B         -6.37627       -0.64131       -1.20592
B         -6.36059        0.87036       -1.23690
B          1.69527       -0.83573        0.84408
B          0.27791       -1.50283        0.05063
B          0.21104        1.78788        0.90145
B          5.82278        1.51848       -0.77891
B          5.95722       -0.09748       -0.81649
B          5.73944       -1.71964       -0.81886
B          1.43483        0.51972        1.93494
