45
isomer_2110.log	Energy: -112435.5375875
B         -2.55700       -1.68576       -0.41729
B         -2.55292       -3.32295       -0.03366
B         -1.14821       -4.15761        0.20494
B          0.30921       -3.33184       -0.35332
B         -1.09567       -0.79984       -0.73127
B          1.77852       -0.84004       -0.82892
B          1.69958       -4.12089        0.33124
B         -4.01213       -0.80618       -0.33937
B          1.69589       -2.44284       -0.26446
B         -3.95673       -2.49737        0.12086
B          0.27294       -4.77898        0.47825
B          3.13460       -3.27910        0.33765
B          3.16455       -1.65900       -0.23247
B          4.62933       -0.85047        0.25617
B          0.35331        1.72126       -0.89484
B          1.74107        2.41266       -0.27611
B          3.19489        1.60180       -0.24029
B          4.64440        0.76850        0.25229
B          4.49236        2.32822        0.49448
B          3.19512        3.22489        0.32204
B          1.77601        4.09319        0.31154
B          0.37117        3.32688       -0.36929
B          0.36187        4.77842        0.45531
B         -2.49062        3.37278       -0.04972
B         -1.07061        4.18229        0.18493
B         -2.52518        1.73412       -0.42550
B         -3.90954        2.57422        0.10869
B         -3.99642        0.88216       -0.34342
B         -1.08814        2.54467       -0.59617
B         -1.13530       -2.52371       -0.58401
B          3.26043       -0.13031       -0.63312
B         -1.08061        0.81967       -0.73516
B          4.44831       -2.40590        0.50584
B         -5.27129       -1.67914        0.62857
B         -5.25423       -0.04863        0.39072
B         -5.23908        1.78303        0.62026
B         -6.41066        0.84055        1.22969
B         -6.42510       -0.71211        1.23342
B          1.79384        0.80591       -0.83287
B         -3.07606       -0.41198       -0.68622
B          0.32121       -1.72871       -0.88656
B          5.96436       -1.70844        0.71193
B          6.17562        0.00306        0.77200
B          5.99398        1.73481        0.77428
B         -0.47707        0.38872        0.02893
