45
isomer_0022.log	Energy: -113675.8861636
B          2.56310        1.73064       -0.53061
B          2.51357        3.30367        0.03640
B          1.15669        4.14901        0.10864
B         -0.26897        3.40311       -0.53890
B          1.17006        0.85049       -1.06846
B         -1.71793        0.84358       -0.78887
B         -1.64186        4.16966        0.25920
B          3.98403        0.84536       -0.22500
B         -1.72425        2.55089       -0.42941
B          3.86967        2.48505        0.27509
B         -0.21963        4.74796        0.35329
B         -3.00835        3.34010        0.27975
B         -3.12904        1.73335       -0.22065
B         -4.54672        0.89403        0.14605
B         -0.36871       -1.82521       -1.11637
B         -1.80181       -2.53254       -0.48815
B         -3.17345       -1.68041       -0.26009
B         -4.53306       -0.79799        0.23562
B         -4.40712       -2.44435        0.74854
B         -3.09191       -3.28062        0.26591
B         -1.74786       -4.14424        0.24649
B         -0.35078       -3.38466       -0.51394
B         -0.34133       -4.74572        0.35248
B          2.42785       -3.33474        0.04026
B          1.04782       -4.15699        0.12380
B          2.50968       -1.76006       -0.48895
B          3.81019       -2.53726        0.29254
B          3.95669       -0.91031       -0.21571
B          1.11955       -2.58986       -0.76454
B          1.18574        2.57763       -0.78928
B         -3.29376        0.01625       -0.60922
B          1.13037       -0.84902       -1.04298
B         -4.32680        2.49924        0.77117
B          5.10423        1.65194        0.84534
B          5.19552       -0.04422        0.52299
B          5.06082       -1.73854        0.86476
B          6.08402       -0.81360        1.61330
B          6.10427        0.70709        1.60608
B         -1.78590       -0.83026       -0.91031
B          2.60971       -0.01630       -0.74616
B         -0.31286        1.83083       -1.08747
B         -5.37432        1.56960        1.33817
B         -5.62068        0.03336        1.30366
B         -5.47371       -1.51864        1.30020
B         -0.34279        0.00270       -1.09468
