45
isomer_2551.log	Energy: -113524.0908989
B          2.35229       -1.59537        0.52435
B          1.95724       -3.16947       -0.24999
B          1.12068       -4.22231        0.62287
B         -0.34350       -3.37028        1.39397
B          1.24864       -0.75662        1.32188
B         -1.57015       -0.70579        0.69488
B         -1.51493       -4.06354        0.04167
B          3.58158       -0.84418       -0.16828
B         -1.32429       -2.33619       -0.00618
B          3.27620       -2.36060       -0.69279
B         -0.28670       -4.80307        0.45372
B         -2.81164       -3.16426       -0.37284
B         -2.88890       -1.59589       -0.01878
B         -4.35016       -0.69532       -0.27853
B         -0.23939        1.87902        1.31714
B         -1.56292        2.62967        0.50000
B         -2.94569        1.85452        0.15883
B         -4.17450        0.93877       -0.55880
B         -4.10616        2.62121       -0.90531
B         -2.81214        3.44521       -0.28850
B         -1.45457        4.26972       -0.11466
B         -0.13053        3.46470        0.75471
B         -0.03648        4.82965       -0.08322
B          2.64253        3.35506        0.27631
B          1.33592        4.18821        0.22767
B          2.59261        1.63199        0.70716
B          3.84924        2.46285       -0.10208
B          3.84607        0.84631        0.07538
B          1.31442        2.59448        1.07716
B          1.16707       -2.52779        1.20394
B         -3.10469        0.12153        0.47155
B          1.27407        0.89919        1.31416
B         -4.08702       -2.35159       -0.92042
B          4.55468       -1.63785       -1.36073
B          4.94144       -0.08875       -0.72433
B          5.00426        1.58574       -0.92204
B          5.80993        0.70478       -1.88354
B          5.56521       -0.74891       -2.10441
B         -1.64343        0.97269        0.95174
B          0.13089       -3.10434       -0.33157
B         -0.34485       -1.70494        1.31020
B         -5.12371       -1.38669       -1.48910
B         -5.33678        0.15299       -1.53492
B         -5.16463        1.72157       -1.51667
B         -0.20722        0.06389        1.22837
