45
isomer_2792.log	Energy: -112616.0728273
B         -2.64077        1.69801        0.39869
B         -2.63649        3.33383        0.00922
B         -1.23175        4.16685       -0.23487
B          0.22622        3.34226        0.32371
B         -1.17937        0.81241        0.71320
B          1.69502        0.85135        0.80555
B          1.61578        4.12810       -0.36615
B         -4.09653        0.81896        0.32651
B          1.61225        2.45218        0.23553
B         -4.04102        2.50848       -0.13983
B          0.18924        4.78646       -0.51293
B          3.05033        3.28550       -0.37213
B          3.08042        1.66742        0.20369
B          4.54388        0.85634       -0.28469
B          0.26852       -1.70890        0.88314
B          1.65479       -2.40327        0.26439
B          3.10899       -1.59334        0.22307
B          4.55806       -0.76261       -0.27507
B          4.40473       -2.32309       -0.51144
B          3.10731       -3.21842       -0.33348
B          1.68775       -4.08590       -0.31733
B          0.28456       -3.31639        0.36329
B          0.27298       -4.77085       -0.45613
B         -2.57782       -3.36185        0.04902
B         -1.15868       -4.17298       -0.18530
B         -2.61081       -1.72184        0.41902
B         -3.99659       -2.56307       -0.10969
B         -4.08174       -0.86936        0.33655
B         -1.17392       -2.53257        0.59000
B         -1.21832        2.53576        0.55988
B          3.17618        0.14011        0.60961
B         -1.16518       -0.80710        0.72283
B          4.36326        2.41098       -0.53958
B         -5.35694        1.68917       -0.64226
B         -5.34035        0.05951       -0.39864
B         -5.32661       -1.77297       -0.62168
B         -6.49877       -0.83201       -1.23236
B         -6.51237        0.72063       -1.24159
B          1.70944       -0.79458        0.81533
B         -0.58340        0.52743        1.72604
B          0.23829        1.74103        0.86264
B          5.87855        1.71195       -0.74590
B          6.08877        0.00013       -0.80026
B          5.90617       -1.73152       -0.79604
B          0.70599       -0.90221       -0.32356
