45
isomer_3138.log	Energy: -113498.3422570
B         -2.36494        1.55038       -0.14230
B         -2.45844        3.29970       -0.16918
B         -1.06991        4.10566       -0.26860
B          0.36883        3.36372        0.35251
B         -1.02052        0.81468        0.69582
B          1.73685        0.80985        0.77532
B          1.76413        4.14133       -0.27261
B         -3.83790        0.89138        0.37172
B          1.78732        2.48758        0.39867
B         -3.84181        2.49967       -0.27781
B          0.37311        4.72736       -0.45399
B          3.15595        3.28348       -0.16873
B          3.23206        1.71989        0.30545
B          4.66639        0.82921        0.09288
B          0.37946       -1.70909        0.85354
B          1.78645       -2.48791        0.39777
B          3.23134       -1.72036        0.30471
B          4.66582       -0.82998        0.09169
B          4.53169       -2.47090       -0.49681
B          3.15480       -3.28370       -0.17032
B          1.76279       -4.14127       -0.27377
B          0.36788       -3.36408        0.35333
B          0.37152       -4.72695       -0.45420
B         -2.45945       -3.29924       -0.16802
B         -1.07111       -4.10515       -0.26839
B         -2.36542       -1.55025       -0.14247
B         -3.84257       -2.49908       -0.27689
B         -3.83797       -0.89055        0.37225
B         -1.11398       -2.56841        0.44124
B         -1.11325        2.56847        0.43976
B          3.27010       -0.00039        0.67807
B         -2.10994        0.00008       -0.60328
B          4.53244        2.47026       -0.49586
B         -5.18945        1.70634       -0.44398
B         -5.12432        0.00042       -0.25778
B         -5.18986       -1.70547       -0.44339
B         -6.44153       -0.76509       -0.70048
B         -6.44126        0.76603       -0.70103
B          1.73668       -0.81045        0.77608
B         -2.54297        0.00034        1.11336
B          0.37988        1.70869        0.85255
B          5.66922        1.54320       -0.91243
B          5.86356       -0.00042       -0.88744
B          5.66898       -1.54419       -0.91308
B         -1.02064       -0.81478        0.69614
