45
isomer_3591.log	Energy: -113380.1782130
B          2.60345       -1.62456        0.60024
B          2.41829       -3.19428       -0.14564
B          0.99301       -3.94229       -0.21865
B         -0.48298       -3.29777        0.60666
B          1.25056       -0.84104        1.13928
B         -1.83522       -0.90994        1.18622
B         -1.73997       -3.89970       -0.65314
B          3.99612       -0.88851        0.20115
B         -2.17678       -2.80744        0.60208
B          3.77465       -2.40249       -0.34481
B         -0.36489       -4.44420       -0.57888
B         -3.09985       -3.06699       -0.74576
B         -3.08547       -1.57125       -0.06044
B         -4.32787       -0.54057       -0.58523
B         -0.14430        1.66457        0.73706
B         -1.57216        2.54421        0.63799
B         -2.99539        1.80567        0.34229
B         -4.46961        1.02008       -0.00523
B         -4.21981        2.69751       -0.43882
B         -2.83715        3.42992       -0.03193
B         -1.45831        4.21744       -0.07965
B         -0.08111        3.24803        0.24917
B         -0.02942        4.74914       -0.27220
B          2.71808        3.29465       -0.08763
B          1.37776        4.09522       -0.16231
B          2.73602        1.59925        0.61468
B          3.98143        2.42472       -0.23694
B          4.10533        0.84954        0.21620
B          1.34964        2.34451        0.22387
B          1.16144       -2.49179        0.57932
B         -3.16400        0.04937        0.49787
B          1.37480        0.80092        0.96050
B         -4.34822       -2.14449       -1.18047
B          5.17071       -1.70392       -0.80114
B          5.31975       -0.07761       -0.35226
B          5.29230        1.55958       -0.75566
B          6.27994        0.62582       -1.49080
B          6.24718       -0.86525       -1.48214
B         -1.62918        0.78405        0.89571
B         -0.18852       -0.03183        1.11139
B         -0.14482       -1.74387        1.41316
B         -5.42743       -1.15190       -1.57216
B         -5.57444        0.37138       -1.33887
B         -5.30986        1.86306       -1.08808
B         -1.44371       -2.39693        1.89396
