45
isomer_3657.log	Energy: -112391.6606100
B          2.65410        1.71400       -0.43933
B          2.64707        3.34834       -0.04374
B          1.24102        4.17742        0.20621
B         -0.21626        3.35178       -0.35259
B          1.19399        0.82643       -0.75428
B         -1.68065        0.85952       -0.84084
B         -1.60615        4.13203        0.34293
B          4.11188        0.83784       -0.37329
B         -1.60020        2.45838       -0.26501
B          4.05366        2.52548        0.09947
B         -0.18075        4.79292        0.48937
B         -3.03887        3.28632        0.34858
B         -3.06662        1.67034       -0.23322
B         -4.52736        0.85429        0.25500
B         -0.24881       -1.69734       -0.93079
B         -1.63236       -2.39701       -0.31192
B         -3.08821       -1.59038       -0.26473
B         -4.53808       -0.76464        0.23936
B         -4.38094       -2.32566        0.46959
B         -3.08195       -3.21752        0.28574
B         -1.66055       -4.08187        0.26357
B         -0.26036       -3.30680       -0.41692
B         -0.24404       -4.76427        0.39704
B          2.60272       -3.34725       -0.10843
B          1.18579       -4.16230        0.12564
B          2.63145       -1.70581       -0.47237
B          4.02008       -2.54600        0.05047
B          4.10070       -0.85046       -0.38960
B          1.19597       -2.51899       -0.64356
B          1.22954        2.54928       -0.59459
B         -3.15989        0.14436       -0.64466
B          1.18327       -0.79305       -0.76992
B         -4.34959        2.40835        0.51533
B          5.37233        1.70714        0.59626
B          5.35877        0.07837        0.34659
B          5.34940       -1.75496        0.56281
B          6.52073       -0.81375        1.17470
B          6.53102        0.73886        1.18970
B         -1.69155       -0.78639       -0.85674
B         -0.46432       -1.34731        1.21199
B         -0.22596        1.75254       -0.89746
B         -5.86296        1.70529        0.72201
B         -6.06939       -0.00717        0.77039
B         -5.88308       -1.73839        0.75935
B         -0.42460        0.59803       -0.81812
