45
isomer_0758.log	Energy: -113441.9657283
B          2.45082        1.82449       -0.46722
B          2.37217        3.45204        0.11343
B          0.97745        4.21813        0.27889
B         -0.44227        3.42778       -0.34033
B          1.14810        0.95916       -1.03418
B         -1.77388        0.86067       -0.72191
B         -1.83590        4.13245        0.41823
B          3.72978        1.01876        0.01387
B         -1.84919        2.55119       -0.46248
B          3.79623        2.69202        0.16160
B         -0.45710        4.75340        0.55884
B         -3.19538        3.24733        0.34624
B         -3.21494        1.67882       -0.16683
B         -4.64442        0.72683       -0.04585
B         -0.27725       -1.65406       -1.30386
B         -1.55243       -2.48862       -0.56628
B         -3.02467       -1.74481       -0.31598
B         -4.41020       -0.90755        0.21745
B         -4.26429       -2.56431        0.60000
B         -2.82870       -3.27321        0.17041
B         -1.37995       -3.98066        0.24365
B          0.07652       -3.24233       -0.39412
B         -0.04925       -4.50063        0.66153
B          2.66268       -3.19357        0.79456
B          1.38583       -4.10447        0.80950
B          2.47558       -1.74097       -0.39543
B          3.73971       -2.13508        0.64993
B          3.68494       -0.64421        0.00564
B          1.82051       -3.42102       -0.59323
B          1.08786        2.68676       -0.57145
B         -3.25485       -0.02872       -0.65257
B          1.28509       -0.63282       -1.02444
B         -4.49951        2.36265        0.68795
B          5.12683        1.93683        0.51258
B          5.17709        0.23979        0.08059
B          5.16507       -1.31438        0.68231
B          6.36979       -0.47056        1.00204
B          6.24393        1.01094        1.06593
B         -1.68427       -0.78926       -1.00695
B          1.17049       -2.28435       -1.42094
B         -0.39936        1.88158       -0.97142
B         -5.51959        1.32818        1.14727
B         -5.69494       -0.21277        1.10823
B         -5.44514       -1.75573        1.08776
B         -0.24901        0.09429       -0.96295
