45
isomer_0984.log	Energy: -112548.0625873
B          2.62667       -1.67420        0.31872
B          2.61240       -3.30438       -0.09149
B          1.20920       -4.13133       -0.34440
B         -0.24635       -3.31499        0.22336
B          1.17619       -0.79878        0.64148
B         -1.71461       -0.81835        0.73819
B         -1.63718       -4.08413       -0.47354
B          4.07228       -0.79352        0.26079
B         -1.63952       -2.41752        0.14626
B          4.01337       -2.47170       -0.22890
B         -0.21376       -4.73444       -0.62683
B         -3.07109       -3.23473       -0.47008
B         -3.10144       -1.62576        0.12350
B         -4.56118       -0.79874       -0.35255
B         -0.28859        1.75205        0.84459
B         -1.66945        2.45211        0.23700
B         -3.12242        1.64384        0.18533
B         -4.56832        0.82111       -0.32031
B         -4.41953        2.38792       -0.54255
B         -3.11084        3.27416       -0.34950
B         -1.68976        4.13992       -0.32190
B         -0.28941        3.36306        0.34833
B         -0.27475        4.81428       -0.44812
B          2.57188        3.40097        0.03636
B          1.15504        4.21897       -0.18695
B          2.60424        1.75730        0.38510
B          3.98727        2.58945       -0.13096
B          4.06354        0.90099        0.29264
B          1.17147        2.57582        0.56341
B          1.20502       -2.51698        0.46763
B         -3.19500       -0.09402        0.54866
B          1.16013        0.85833        0.67159
B         -4.39383       -2.35757       -0.63087
B          5.32440       -1.65025       -0.71816
B          5.31207       -0.02103       -0.45245
B          5.30329        1.80319       -0.65053
B          6.46356        0.86819       -1.26982
B          6.47820       -0.67373       -1.30259
B         -1.72515        0.83446        0.76812
B          0.30234       -0.05226        0.71316
B         -0.26541       -1.72037        0.78029
B         -5.88464       -1.63141       -0.82148
B         -6.08409        0.06595       -0.85218
B         -5.89827        1.77318       -0.82611
B          0.25204       -1.37502        3.11775
